ITEM: TIMESTEP
0
ITEM: NUMBER OF ATOMS
3
ITEM: BOX BOUNDS pp pp pp
0   1
0   1
0   1
ITEM: ATOMS type vx vy vz
1 0 0 0
2 0.5 0.5 0.5
2 -0.5 -0.5 -0.5
1 1 1 1
2 1.5 1.5 1.5
2 -1.5 -1.5 -1.5
ITEM: TIMESTEP
0
ITEM: NUMBER OF ATOMS
3
ITEM: BOX BOUNDS pp pp pp
0   1
0   1
0   1
ITEM: ATOMS type vx vy vz 
1 0.3 0.3 0.3
2 0.7 0.7 0.7
2 -0.7 -0.7 -0.7
1 1.3 1.3 1.3
2 1.7 1.7 1.7
2 -1.7 -1.7 -1.7
ITEM: TIMESTEP
0
ITEM: NUMBER OF ATOMS
3
ITEM: BOX BOUNDS pp pp pp
0   1
0   1
0   1
ITEM: ATOMS type vx vy vz
1 0.1 0.2 0.6
2 0.4 0.9 1.1
2 0.3 0.2 0.1
1 1.1 1.1 1.1
2 1.5 1.5 1.5
2 -1.5 -1.5 -1.5
